 Entering Gaussian System, Link 0=g16
 Input orientation: ...
 ...
 Optimization completed.
 ...
 Frequencies -- 1755.32   1625.89   1604.51   (cm-1)
 ...
 Thermochemistry
 Zero-point correction= 0.172176
 Thermal correction to Energy=   0.185930
 Total electronic energy:  -507.15592 a.u.
 ...
